[
  {"prompt": "Is the capital of France Paris? Answer:", "correct_answer": "Yes", "incorrect_answer": "No"},
  {"prompt": "Is the chemical symbol for gold Au? Answer:", "correct_answer": "Yes", "incorrect_answer": "No"},
  {"prompt": "Is Tokyo the capital of Japan? Answer:", "correct_answer": "Yes", "incorrect_answer": "No"},
  {"prompt": "Did World War II end in 1945? Answer:", "correct_answer": "Yes", "incorrect_answer": "No"},
  {"prompt": "Is Jupiter the largest planet in the Solar System? Answer:", "correct_answer": "Yes", "incorrect_answer": "No"},
  {"prompt": "Is the boiling point of water 100 degrees Celsius at sea level? Answer:", "correct_answer": "Yes", "incorrect_answer": "No"},
  {"prompt": "Was Abraham Lincoln the 16th president of the United States? Answer:", "correct_answer": "Yes", "incorrect_answer": "No"},
  {"prompt": "Is the chemical symbol for iron Fe? Answer:", "correct_answer": "Yes", "incorrect_answer": "No"},
  {"prompt": "Is the Pacific Ocean the largest ocean on Earth? Answer:", "correct_answer": "Yes", "incorrect_answer": "No"},
  {"prompt": "Did Alexander Fleming discover penicillin? Answer:", "correct_answer": "Yes", "incorrect_answer": "No"},
  {"prompt": "Is Berlin the capital of Germany? Answer:", "correct_answer": "Yes", "incorrect_answer": "No"},
  {"prompt": "Is the atomic number of carbon 6? Answer:", "correct_answer": "Yes", "incorrect_answer": "No"},
  {"prompt": "Did the Wright brothers achieve the first powered airplane flight? Answer:", "correct_answer": "Yes", "incorrect_answer": "No"},
  {"prompt": "Is Ottawa the capital of Canada? Answer:", "correct_answer": "Yes", "incorrect_answer": "No"},
  {"prompt": "Is the speed of light approximately 300000 kilometers per second? Answer:", "correct_answer": "Yes", "incorrect_answer": "No"},
  {"prompt": "Was Leonardo da Vinci the painter of the Mona Lisa? Answer:", "correct_answer": "Yes", "incorrect_answer": "No"},
  {"prompt": "Is the chemical formula for table salt NaCl? Answer:", "correct_answer": "Yes", "incorrect_answer": "No"},
  {"prompt": "Is Mount Everest the tallest mountain above sea level? Answer:", "correct_answer": "Yes", "incorrect_answer": "No"},
  {"prompt": "Was Neil Armstrong the first person to walk on the Moon? Answer:", "correct_answer": "Yes", "incorrect_answer": "No"},
  {"prompt": "Is the freezing point of water 0 degrees Celsius? Answer:", "correct_answer": "Yes", "incorrect_answer": "No"},
  {"prompt": "Is Rome the capital of Italy? Answer:", "correct_answer": "Yes", "incorrect_answer": "No"},
  {"prompt": "Did Marie Curie win two Nobel Prizes? Answer:", "correct_answer": "Yes", "incorrect_answer": "No"},
  {"prompt": "Is the chemical symbol for sodium Na? Answer:", "correct_answer": "Yes", "incorrect_answer": "No"},
  {"prompt": "Is the Nile the longest river in the world? Answer:", "correct_answer": "Yes", "incorrect_answer": "No"},
  {"prompt": "Was Shakespeare born in Stratford-upon-Avon? Answer:", "correct_answer": "Yes", "incorrect_answer": "No"},
  {"prompt": "Is Madrid the capital of Spain? Answer:", "correct_answer": "Yes", "incorrect_answer": "No"},
  {"prompt": "Is the square root of 144 equal to 12? Answer:", "correct_answer": "Yes", "incorrect_answer": "No"},
  {"prompt": "Is Beijing the capital of China? Answer:", "correct_answer": "Yes", "incorrect_answer": "No"},
  {"prompt": "Did Isaac Newton formulate the three laws of motion? Answer:", "correct_answer": "Yes", "incorrect_answer": "No"},
  {"prompt": "Is hydrogen the lightest element? Answer:", "correct_answer": "Yes", "incorrect_answer": "No"},
  {"prompt": "Is the human heart divided into four chambers? Answer:", "correct_answer": "Yes", "incorrect_answer": "No"},
  {"prompt": "Was the Titanic sunk in 1912? Answer:", "correct_answer": "Yes", "incorrect_answer": "No"},
  {"prompt": "Is the Amazon the largest rainforest by area? Answer:", "correct_answer": "Yes", "incorrect_answer": "No"},
  {"prompt": "Is Seoul the capital of South Korea? Answer:", "correct_answer": "Yes", "incorrect_answer": "No"},
  {"prompt": "Is the chemical symbol for potassium K? Answer:", "correct_answer": "Yes", "incorrect_answer": "No"},
  {"prompt": "Did Charles Darwin write On the Origin of Species? Answer:", "correct_answer": "Yes", "incorrect_answer": "No"},
  {"prompt": "Is the Moon Earth's only natural satellite? Answer:", "correct_answer": "Yes", "incorrect_answer": "No"},
  {"prompt": "Is the currency of Japan the yen? Answer:", "correct_answer": "Yes", "incorrect_answer": "No"},
  {"prompt": "Was the Berlin Wall opened in 1989? Answer:", "correct_answer": "Yes", "incorrect_answer": "No"},
  {"prompt": "Is helium the second lightest element? Answer:", "correct_answer": "Yes", "incorrect_answer": "No"},
  {"prompt": "Is Canberra the capital of Australia? Answer:", "correct_answer": "Yes", "incorrect_answer": "No"},
  {"prompt": "Is the femur the longest bone in the human body? Answer:", "correct_answer": "Yes", "incorrect_answer": "No"},
  {"prompt": "Did Gutenberg invent the printing press? Answer:", "correct_answer": "Yes", "incorrect_answer": "No"},
  {"prompt": "Is Russia the largest country by land area? Answer:", "correct_answer": "Yes", "incorrect_answer": "No"},
  {"prompt": "Is the chemical symbol for oxygen O? Answer:", "correct_answer": "Yes", "incorrect_answer": "No"},
  {"prompt": "Was Cleopatra the last pharaoh of Egypt? Answer:", "correct_answer": "Yes", "incorrect_answer": "No"},
  {"prompt": "Is pi approximately 3.14159? Answer:", "correct_answer": "Yes", "incorrect_answer": "No"},
  {"prompt": "Is the Sahara the largest hot desert in the world? Answer:", "correct_answer": "Yes", "incorrect_answer": "No"},
  {"prompt": "Did Alexander Graham Bell invent the telephone? Answer:", "correct_answer": "Yes", "incorrect_answer": "No"},
  {"prompt": "Is DNA a double helix structure? Answer:", "correct_answer": "Yes", "incorrect_answer": "No"},
  {"prompt": "Is the capital of France London? Answer:", "correct_answer": "No", "incorrect_answer": "Yes"},
  {"prompt": "Is the chemical symbol for gold Ag? Answer:", "correct_answer": "No", "incorrect_answer": "Yes"},
  {"prompt": "Is Tokyo the capital of China? Answer:", "correct_answer": "No", "incorrect_answer": "Yes"},
  {"prompt": "Did World War II end in 1918? Answer:", "correct_answer": "No", "incorrect_answer": "Yes"},
  {"prompt": "Is Saturn the largest planet in the Solar System? Answer:", "correct_answer": "No", "incorrect_answer": "Yes"},
  {"prompt": "Is the boiling point of water 50 degrees Celsius? Answer:", "correct_answer": "No", "incorrect_answer": "Yes"},
  {"prompt": "Was George Washington the 16th president of the United States? Answer:", "correct_answer": "No", "incorrect_answer": "Yes"},
  {"prompt": "Is the chemical symbol for iron Ir? Answer:", "correct_answer": "No", "incorrect_answer": "Yes"},
  {"prompt": "Is the Atlantic Ocean the largest ocean on Earth? Answer:", "correct_answer": "No", "incorrect_answer": "Yes"},
  {"prompt": "Did Louis Pasteur discover penicillin? Answer:", "correct_answer": "No", "incorrect_answer": "Yes"},
  {"prompt": "Is Munich the capital of Germany? Answer:", "correct_answer": "No", "incorrect_answer": "Yes"},
  {"prompt": "Is the atomic number of carbon 8? Answer:", "correct_answer": "No", "incorrect_answer": "Yes"},
  {"prompt": "Did Thomas Edison achieve the first powered airplane flight? Answer:", "correct_answer": "No", "incorrect_answer": "Yes"},
  {"prompt": "Is Toronto the capital of Canada? Answer:", "correct_answer": "No", "incorrect_answer": "Yes"},
  {"prompt": "Is the speed of light approximately 150000 kilometers per second? Answer:", "correct_answer": "No", "incorrect_answer": "Yes"},
  {"prompt": "Was Michelangelo the painter of the Mona Lisa? Answer:", "correct_answer": "No", "incorrect_answer": "Yes"},
  {"prompt": "Is the chemical formula for table salt H2O? Answer:", "correct_answer": "No", "incorrect_answer": "Yes"},
  {"prompt": "Is K2 the tallest mountain above sea level? Answer:", "correct_answer": "No", "incorrect_answer": "Yes"},
  {"prompt": "Was Buzz Aldrin the first person to walk on the Moon? Answer:", "correct_answer": "No", "incorrect_answer": "Yes"},
  {"prompt": "Is the freezing point of water 32 degrees Celsius? Answer:", "correct_answer": "No", "incorrect_answer": "Yes"},
  {"prompt": "Is Rome the capital of Greece? Answer:", "correct_answer": "No", "incorrect_answer": "Yes"},
  {"prompt": "Did Marie Curie win three Nobel Prizes? Answer:", "correct_answer": "No", "incorrect_answer": "Yes"},
  {"prompt": "Is the chemical symbol for sodium So? Answer:", "correct_answer": "No", "incorrect_answer": "Yes"},
  {"prompt": "Is the Amazon the longest river in the world? Answer:", "correct_answer": "No", "incorrect_answer": "Yes"},
  {"prompt": "Was Shakespeare born in London? Answer:", "correct_answer": "No", "incorrect_answer": "Yes"},
  {"prompt": "Is Barcelona the capital of Spain? Answer:", "correct_answer": "No", "incorrect_answer": "Yes"},
  {"prompt": "Is the square root of 144 equal to 14? Answer:", "correct_answer": "No", "incorrect_answer": "Yes"},
  {"prompt": "Is Shanghai the capital of China? Answer:", "correct_answer": "No", "incorrect_answer": "Yes"},
  {"prompt": "Did Galileo formulate the three laws of motion? Answer:", "correct_answer": "No", "incorrect_answer": "Yes"},
  {"prompt": "Is helium the heaviest element? Answer:", "correct_answer": "No", "incorrect_answer": "Yes"},
  {"prompt": "Is the human heart divided into three chambers? Answer:", "correct_answer": "No", "incorrect_answer": "Yes"},
  {"prompt": "Was the Titanic sunk in 1905? Answer:", "correct_answer": "No", "incorrect_answer": "Yes"},
  {"prompt": "Is the Sahara the largest rainforest by area? Answer:", "correct_answer": "No", "incorrect_answer": "Yes"},
  {"prompt": "Is Pyongyang the capital of South Korea? Answer:", "correct_answer": "No", "incorrect_answer": "Yes"},
  {"prompt": "Is the chemical symbol for potassium Po? Answer:", "correct_answer": "No", "incorrect_answer": "Yes"},
  {"prompt": "Did Charles Darwin write A Brief History of Time? Answer:", "correct_answer": "No", "incorrect_answer": "Yes"},
  {"prompt": "Does Earth have two natural satellites? Answer:", "correct_answer": "No", "incorrect_answer": "Yes"},
  {"prompt": "Is the currency of Japan the won? Answer:", "correct_answer": "No", "incorrect_answer": "Yes"},
  {"prompt": "Was the Berlin Wall opened in 1961? Answer:", "correct_answer": "No", "incorrect_answer": "Yes"},
  {"prompt": "Is oxygen the lightest element? Answer:", "correct_answer": "No", "incorrect_answer": "Yes"},
  {"prompt": "Is Sydney the capital of Australia? Answer:", "correct_answer": "No", "incorrect_answer": "Yes"},
  {"prompt": "Is the humerus the longest bone in the human body? Answer:", "correct_answer": "No", "incorrect_answer": "Yes"},
  {"prompt": "Did Benjamin Franklin invent the printing press? Answer:", "correct_answer": "No", "incorrect_answer": "Yes"},
  {"prompt": "Is Canada the largest country by land area? Answer:", "correct_answer": "No", "incorrect_answer": "Yes"},
  {"prompt": "Is the chemical symbol for oxygen Ox? Answer:", "correct_answer": "No", "incorrect_answer": "Yes"},
  {"prompt": "Was Nefertiti the last pharaoh of Egypt? Answer:", "correct_answer": "No", "incorrect_answer": "Yes"},
  {"prompt": "Is pi approximately 2.718? Answer:", "correct_answer": "No", "incorrect_answer": "Yes"},
  {"prompt": "Is the Gobi the largest hot desert in the world? Answer:", "correct_answer": "No", "incorrect_answer": "Yes"},
  {"prompt": "Did Thomas Edison invent the telephone? Answer:", "correct_answer": "No", "incorrect_answer": "Yes"},
  {"prompt": "Is DNA a triple helix structure? Answer:", "correct_answer": "No", "incorrect_answer": "Yes"}
]
